Program Version,EnergyPlus, Version 8.7.0-78a111df4a, YMD=2017.07.14 04:33
1,5,Environment Title[],Latitude[deg],Longitude[deg],Time Zone[],Elevation[m]
2,6,Day of Simulation[],Month[],Day of Month[],DST Indicator[1=yes 0=no],Hour[],StartMinute[],EndMinute[],DayType
3,3,Cumulative Day of Simulation[],Month[],Day of Month[],DST Indicator[1=yes 0=no],DayType  ! When Daily Report Variables Requested
4,2,Cumulative Days of Simulation[],Month[]  ! When Monthly Report Variables Requested
5,1,Cumulative Days of Simulation[] ! When Run Period Report Variables Requested
6,1,Environment,Site Outdoor Air Drybulb Temperature [C] !TimeStep
7,1,Environment,Site Outdoor Air Wetbulb Temperature [C] !TimeStep
8,1,Environment,Site Outdoor Air Relative Humidity [%] !TimeStep
9,1,Environment,Site Diffuse Solar Radiation Rate per Area [W/m2] !TimeStep
10,1,Environment,Site Direct Solar Radiation Rate per Area [W/m2] !TimeStep
271,1,ZSF1,Zone Air Temperature [C] !TimeStep
304,1,ZNF1,Zone Air Temperature [C] !TimeStep
337,1,ZSF2,Zone Air Temperature [C] !TimeStep
370,1,ZNF2,Zone Air Temperature [C] !TimeStep
403,1,BASE-1,Zone Air Temperature [C] !TimeStep
404,1,Whole Building,Facility Total Purchased Electric Power [W] !TimeStep
498,1,Whole Building,Facility Total Building Electric Demand Power [W] !TimeStep
499,1,Whole Building,Facility Total HVAC Electric Demand Power [W] !TimeStep
500,1,Whole Building,Facility Total Electric Demand Power [W] !TimeStep
501,1,AIR LOOP AVAIL,Availability Manager Scheduled Control Status [] !TimeStep
558,1,Cooling:Electricity [J] !TimeStep
606,1,Heating:Gas [J] !TimeStep
617,1,Heating:Electricity [J] !TimeStep
12,1,Electricity:Facility [J] !TimeStep
503,1,Electricity:HVAC [J] !TimeStep
586,1,Gas:Facility [J] !TimeStep
596,1,Gas:HVAC [J] !TimeStep
End of Data Dictionary
1,Washington Dc Dulles IntL Ar VA USA TMY3 WMO#=724030,  38.98, -77.47,  -5.00,  82.00
2,1, 5,20, 0, 1, 0.00,10.00,Saturday
6,12.016666666666666
7,11.71796661103937
8,96.66666666666666
9,0.0
10,0.0
271,20.02118391799312
304,19.981109949226917
337,19.489505334615097
370,19.44963226439147
403,17.84375366842067
404,2887.5
498,2887.5
499,0.0
500,2887.5
501,1.0
12,1732500.0
503,0.0
558,0.0
586,0.0
596,0.0
606,0.0
617,0.0
2,1, 5,20, 0, 1,10.00,20.00,Saturday
6,11.833333333333334
7,11.595984430800505
8,97.33333333333333
9,0.0
10,0.0
271,19.985506520038457
304,19.945822736311844
337,19.442526472843356
370,19.403082790348749
403,17.789908108527194
404,2887.5
498,2887.5
499,0.0
500,2887.5
501,2.0
12,1732500.0
503,0.0
558,0.0
586,0.0
596,0.0
606,0.0
617,0.0
2,1, 5,20, 0, 1,20.00,30.00,Saturday
6,11.649999999999999
7,11.473185980560089
8,98.0
9,0.0
10,0.0
271,19.945313929029799
304,19.90602088488152
337,19.39090292643971
370,19.35190999534797
403,17.725516588091737
404,2887.5
498,2887.5
499,0.0
500,2887.5
501,2.0
12,1732500.0
503,0.0
558,0.0
586,0.0
596,0.0
606,0.0
617,0.0
2,1, 5,20, 0, 1,30.00,40.00,Saturday
6,11.466666666666667
7,11.349581566707509
8,98.66666666666666
9,0.0
10,0.0
271,19.902454869875258
304,19.863549842454053
337,19.336239904730268
370,19.29769790958542
403,17.659742356108997
404,2887.5
498,2887.5
499,0.0
500,2887.5
501,2.0
12,1732500.0
503,0.0
558,0.0
586,0.0
596,0.0
606,0.0
617,0.0
2,1, 5,20, 0, 1,40.00,50.00,Saturday
6,11.283333333333334
7,11.225185694881619
8,99.33333333333334
9,0.0
10,0.0
271,19.857573007380343
304,19.81905414217963
337,19.27886659198054
370,19.240774966532045
403,17.594606170337469
404,2887.5
498,2887.5
499,0.0
500,2887.5
501,2.0
12,1732500.0
503,0.0
558,0.0
586,0.0
596,0.0
606,0.0
617,0.0
2,1, 5,20, 0, 1,50.00,60.00,Saturday
6,11.1
7,11.099994777133113
8,100.0
9,0.0
10,0.0
271,19.81096626986221
304,19.772832825387455
337,19.219089231162778
370,19.18144997287382
403,17.52925835795147
404,2887.5
498,2887.5
499,0.0
500,2887.5
501,2.0
12,1732500.0
503,0.0
558,0.0
586,0.0
596,0.0
606,0.0
617,0.0
2,1, 5,20, 0, 2, 0.00,10.00,Saturday
6,11.016666666666666
7,10.959018325258766
8,99.33333333333334
9,0.0
10,0.0
271,19.76648007318329
304,19.728723916376674
337,19.1608094605258
370,19.12361255231505
403,17.478194463446937
404,2887.5
498,2887.5
499,0.0
500,2887.5
501,2.0
12,1732500.0
503,0.0
558,0.0
586,0.0
596,0.0
606,0.0
617,0.0
2,1, 5,20, 0, 2,10.00,20.00,Saturday
6,10.933333333333334
7,10.818247350153369
8,98.66666666666667
9,0.0
10,0.0
271,19.724382840926848
304,19.686997810665895
337,19.104395111231495
370,19.067631512615035
403,17.440013867940008
404,2887.5
498,2887.5
499,0.0
500,2887.5
501,2.0
12,1732500.0
503,0.0
558,0.0
586,0.0
596,0.0
606,0.0
617,0.0
2,1, 5,20, 0, 2,20.00,30.00,Saturday
6,10.85
7,10.677678714328515
8,98.0
9,0.0
10,0.0
271,19.683426313873175
304,19.64640701134004
337,19.048793182529115
370,19.012454028243999
403,17.406871865163294
404,2887.5
498,2887.5
499,0.0
500,2887.5
501,2.0
12,1732500.0
503,0.0
558,0.0
586,0.0
596,0.0
606,0.0
617,0.0
2,1, 5,20, 0, 2,30.00,40.00,Saturday
6,10.766666666666666
7,10.53732131710296
8,97.33333333333334
9,0.0
10,0.0
271,19.642708883163853
304,19.606050815800363
337,18.99324001726029
370,18.957317167811657
403,17.37383805134183
404,2887.5
498,2887.5
499,0.0
500,2887.5
501,2.0
12,1732500.0
503,0.0
558,0.0
586,0.0
596,0.0
606,0.0
617,0.0
2,1, 5,20, 0, 2,40.00,50.00,Saturday
6,10.683333333333334
7,10.39717170248775
8,96.66666666666666
9,0.0
10,0.0
271,19.601918968732318
304,19.565618042633976
337,18.937497322884345
370,18.901983287729295
403,17.339888992931888
404,2887.5
498,2887.5
499,0.0
500,2887.5
501,2.0
12,1732500.0
503,0.0
558,0.0
586,0.0
596,0.0
606,0.0
617,0.0
2,1, 5,20, 0, 2,50.00,60.00,Saturday
6,10.6
7,10.257233157102628
8,96.0
9,0.0
10,0.0
271,19.561020927198347
304,19.52507312622529
337,18.88156746578425
370,18.846455216211394
403,17.305535270117927
404,2887.5
498,2887.5
499,0.0
500,2887.5
501,2.0
12,1732500.0
503,0.0
558,0.0
586,0.0
596,0.0
606,0.0
617,0.0
2,1, 5,20, 0, 3, 0.00,10.00,Saturday
6,10.5
7,10.158382724245863
8,96.0
9,0.0
10,0.0
271,19.51967913241032
304,19.484079019783914
337,18.825160268260509
370,18.79044053733685
403,17.26857145105387
404,2887.5
498,2887.5
499,0.0
500,2887.5
501,2.0
12,1732500.0
503,0.0
558,0.0
586,0.0
596,0.0
606,0.0
617,0.0
2,1, 5,20, 0, 3,10.00,20.00,Saturday
6,10.4
7,10.059527505074933
8,96.0
9,0.0
10,0.0
271,19.477904167205297
304,19.44264621970826
337,18.768311775078599
370,18.733975222601868
403,17.229277011141507
404,2887.5
498,2887.5
499,0.0
500,2887.5
501,2.0
12,1732500.0
503,0.0
558,0.0
586,0.0
596,0.0
606,0.0
617,0.0
2,1, 5,20, 0, 3,20.00,30.00,Saturday
6,10.3
7,9.960676001637527
8,96.0
9,0.0
10,0.0
271,19.435843344598024
304,19.400922661125283
337,18.711178643536504
370,18.67721708503971
403,17.188943641339255
404,2887.5
498,2887.5
499,0.0
500,2887.5
501,2.0
12,1732500.0
503,0.0
558,0.0
586,0.0
596,0.0
606,0.0
617,0.0
2,1, 5,20, 0, 3,30.00,40.00,Saturday
6,10.2
7,9.86182254657711
8,96.0
9,0.0
10,0.0
271,19.393608076540738
304,19.35902035477725
337,18.65387796585082
370,18.62028431667362
403,17.148378803613256
404,2887.5
498,2887.5
499,0.0
500,2887.5
501,2.0
12,1732500.0
503,0.0
558,0.0
586,0.0
596,0.0
606,0.0
617,0.0
2,1, 5,20, 0, 3,40.00,50.00,Saturday
6,10.1
7,9.762972837163689
8,96.0
9,0.0
10,0.0
271,19.351249327405499
304,19.31699064567526
337,18.596469244980008
370,18.563237130373169
403,17.107752676404034
404,2887.5
498,2887.5
499,0.0
500,2887.5
501,2.0
12,1732500.0
503,0.0
558,0.0
586,0.0
596,0.0
606,0.0
617,0.0
2,1, 5,20, 0, 3,50.00,60.00,Saturday
6,10.0
7,9.664120448571337
8,96.0
9,0.0
10,0.0
271,19.30878627696305
304,19.274852934623785
337,18.538983356007774
370,18.506106849036283
403,17.06698644649274
404,2887.5
498,2887.5
499,0.0
500,2887.5
501,2.0
12,1732500.0
503,0.0
558,0.0
586,0.0
596,0.0
606,0.0
617,0.0
2,1, 5,20, 0, 4, 0.00,10.00,Saturday
6,10.0
7,9.664120448571337
8,96.0
9,0.0
10,0.0
271,19.270171931701357
304,19.236551848365168
337,18.485175494108718
370,18.452638208232395
403,17.041947148069988
404,2887.5
498,2887.5
499,0.0
500,2887.5
501,2.0
12,1732500.0
503,0.0
558,0.0
586,0.0
596,0.0
606,0.0
617,0.0
2,1, 5,20, 0, 4,10.00,20.00,Saturday
6,10.0
7,9.664120448571337
8,96.0
9,0.0
10,0.0
271,19.235466811423547
304,19.20215160210916
337,18.435589602653108
370,18.403373533480175
403,17.03107664327554
404,2887.5
498,2887.5
499,0.0
500,2887.5
501,2.0
12,1732500.0
503,0.0
558,0.0
586,0.0
596,0.0
606,0.0
617,0.0
2,1, 5,20, 0, 4,20.00,30.00,Saturday
6,10.0
7,9.664120448571337
8,96.0
9,0.0
10,0.0
271,19.20317611885931
304,19.170162504332497
337,18.388562787413624
370,18.356661890102225
403,17.025871144132038
404,2887.5
498,2887.5
499,0.0
500,2887.5
501,2.0
12,1732500.0
503,0.0
558,0.0
586,0.0
596,0.0
606,0.0
617,0.0
2,1, 5,20, 0, 4,30.00,40.00,Saturday
6,10.0
7,9.664120448571337
8,96.0
9,0.0
10,0.0
271,19.172244455922479
304,19.13952928113782
337,18.343648922053199
370,18.312052469202567
403,17.021042062382187
404,2887.5
498,2887.5
499,0.0
500,2887.5
501,2.0
12,1732500.0
503,0.0
558,0.0
586,0.0
596,0.0
606,0.0
617,0.0
2,1, 5,20, 0, 4,40.00,50.00,Saturday
6,10.0
7,9.664120448571337
8,96.0
9,0.0
10,0.0
271,19.142167275652278
304,19.109746697752866
337,18.30026625070324
370,18.26896430313848
403,17.015527794957877
404,2887.5
498,2887.5
499,0.0
500,2887.5
501,2.0
12,1732500.0
503,0.0
558,0.0
586,0.0
596,0.0
606,0.0
617,0.0
2,1, 5,20, 0, 4,50.00,60.00,Saturday
6,10.0
7,9.664120448571337
8,96.0
9,0.0
10,0.0
271,19.11280776396237
304,19.08067801669678
337,18.25810646927863
370,18.227092079643346
403,17.00989303717206
404,2887.5
498,2887.5
499,0.0
500,2887.5
501,2.0
12,1732500.0
503,0.0
558,0.0
586,0.0
596,0.0
606,0.0
617,0.0
2,1, 5,20, 0, 5, 0.00,10.00,Saturday
6,9.9
7,9.621311059033586
8,96.66666666666666
9,0.0
10,0.0
271,19.08004417758112
304,19.048212104858089
337,18.212957361300469
370,18.182242449934237
403,16.988670753968198
404,2887.5
498,2887.5
499,0.0
500,2887.5
501,2.0
12,1732500.0
503,0.0
558,0.0
586,0.0
596,0.0
606,0.0
617,0.0
2,1, 5,20, 0, 5,10.00,20.00,Saturday
6,9.8
7,9.578017614929966
8,97.33333333333333
9,0.0
10,0.0
271,19.043768795355438
304,19.01223760038508
337,18.16466348850862
370,18.1342563363865
403,16.953414010785815
404,2887.5
498,2887.5
499,0.0
500,2887.5
501,2.0
12,1732500.0
503,0.0
558,0.0
586,0.0
596,0.0
606,0.0
617,0.0
2,1, 5,20, 0, 5,20.00,30.00,Saturday
6,9.7
7,9.534235009237289
8,98.0
9,0.0
10,0.0
271,19.005432086795648
304,18.97419996803945
337,18.114551844161004
370,18.08445376797808
403,16.912510765392363
404,2887.5
498,2887.5
499,0.0
500,2887.5
501,2.0
12,1732500.0
503,0.0
558,0.0
586,0.0
596,0.0
606,0.0
617,0.0
2,1, 5,20, 0, 5,30.00,40.00,Saturday
6,9.600000000000002
7,9.489969173004982
8,98.66666666666666
9,0.0
10,0.0
271,18.965960768780616
304,18.935024501219304
337,18.063257181734856
370,18.033467334286308
403,16.87118667551837
404,2887.5
498,2887.5
499,0.0
500,2887.5
501,2.0
12,1732500.0
503,0.0
558,0.0
586,0.0
596,0.0
606,0.0
617,0.0
2,1, 5,20, 0, 5,40.00,50.00,Saturday
6,9.5
7,9.445222752445462
8,99.33333333333334
9,0.0
10,0.0
271,18.925811483132553
304,18.895168933310388
337,18.011220460415847
370,17.981738775529036
403,16.830492597691096
404,2887.5
498,2887.5
499,0.0
500,2887.5
501,2.0
12,1732500.0
503,0.0
558,0.0
586,0.0
596,0.0
606,0.0
617,0.0
2,1, 5,20, 0, 5,50.00,60.00,Saturday
6,9.4
7,9.399993896484375
8,100.0
9,10.0
10,0.0
271,18.892690386038955
304,18.863407993956515
337,17.967343019899319
370,17.93933938182805
403,16.789868710254099
404,2887.5
498,2887.5
499,0.0
500,2887.5
501,2.0
12,1732500.0
503,0.0
558,0.0
586,0.0
596,0.0
606,0.0
617,0.0
2,1, 5,20, 0, 6, 0.00,10.00,Saturday
6,9.5
7,9.445223648770986
8,99.33333333333334
9,13.000000000000002
10,0.0
271,18.869458015118377
304,18.840772116361003
337,17.934440513477278
370,17.907176437807018
403,16.781053657054838
404,2887.5
498,2887.5
499,0.0
500,2887.5
501,2.0
12,1732500.0
503,0.0
558,0.0
586,0.0
596,0.0
606,0.0
617,0.0
2,1, 5,20, 0, 6,10.00,20.00,Saturday
6,9.600000000000002
7,9.489983659406616
8,98.66666666666667
9,16.0
10,0.0
271,18.853825685094856
304,18.82508102814646
337,17.910147911685319
370,17.88288028690234
403,16.800707964558069
404,2887.5
498,2887.5
499,0.0
500,2887.5
501,2.0
12,1732500.0
503,0.0
558,0.0
586,0.0
596,0.0
606,0.0
617,0.0
2,1, 5,20, 0, 6,20.00,30.00,Saturday
6,9.7
7,9.53427059627174
8,98.0
9,19.0
10,0.0
271,18.843025934100493
304,18.814167807054817
337,17.891826519875143
370,17.864410676605336
403,16.83164287372863
404,2887.5
498,2887.5
499,0.0
500,2887.5
501,2.0
12,1732500.0
503,0.0
558,0.0
586,0.0
596,0.0
606,0.0
617,0.0
2,1, 5,20, 0, 6,30.00,40.00,Saturday
6,9.8
7,9.578076960314468
8,97.33333333333334
9,28.0
10,0.0
271,18.839550760124479
304,18.81070020350211
337,17.88272029049
370,17.855206312349968
403,16.863253837521464
404,2887.5
498,2887.5
499,0.0
500,2887.5
501,2.0
12,1732500.0
503,0.0
558,0.0
586,0.0
596,0.0
606,0.0
617,0.0
2,1, 5,20, 0, 6,40.00,50.00,Saturday
6,9.9
7,9.621414569482769
8,96.66666666666666
9,37.0
10,0.0
271,18.8433514407241
304,18.814584726515819
337,17.88342396036711
370,17.855839492193053
403,16.89345318203725
404,2887.5
498,2887.5
499,0.0
500,2887.5
501,2.0
12,1732500.0
503,0.0
558,0.0
586,0.0
596,0.0
606,0.0
617,0.0
2,1, 5,20, 0, 6,50.00,60.00,Saturday
6,10.0
7,9.66427171287556
8,96.0
9,46.0
10,0.0
271,18.85324171617127
304,18.82483059146916
337,17.89307741944154
370,17.865688381791313
403,16.92339822791446
404,2887.5
498,2887.5
499,0.0
500,2887.5
501,2.0
12,1732500.0
503,0.0
558,0.0
586,0.0
596,0.0
606,0.0
617,0.0
2,1, 5,20, 0, 7, 0.00,10.00,Saturday
6,9.9
7,9.56541319431706
8,96.0
9,55.0
10,0.0
271,18.860105822472307
304,18.832284870681126
337,17.90276239270753
370,17.875847047321736
403,16.922499548825895
404,2887.5
498,2887.5
499,0.0
500,2887.5
501,2.0
12,1732500.0
503,0.0
558,0.0
586,0.0
596,0.0
606,0.0
617,0.0
2,1, 5,20, 0, 7,10.00,20.00,Saturday
6,9.8
7,9.466559361039428
8,96.0
9,64.0
10,0.0
271,18.862913199532053
304,18.83593113245955
337,17.911617660759167
370,17.885350036655674
403,16.893858990247347
404,2887.5
498,2887.5
499,0.0
500,2887.5
501,2.0
12,1732500.0
503,0.0
558,0.0
586,0.0
596,0.0
606,0.0
617,0.0
2,1, 5,20, 0, 7,20.00,30.00,Saturday
6,9.7
7,9.367708976641304
8,96.0
9,73.0
10,0.0
271,18.864170518296957
304,18.837959178925098
337,17.921199945421028
370,17.895650488155114
403,16.854127035899308
404,2887.5
498,2887.5
499,0.0
500,2887.5
501,2.0
12,1732500.0
503,0.0
558,0.0
586,0.0
596,0.0
606,0.0
617,0.0
2,1, 5,20, 0, 7,30.00,40.00,Saturday
6,9.600000000000002
7,9.268855115525567
8,96.0
9,80.83333333333333
10,0.16666666666666664
271,18.86487935025432
304,18.839249493854078
337,17.932122844288729
370,17.907211915774039
403,16.813692611171996
404,2887.5
498,2887.5
499,0.0
500,2887.5
501,2.0
12,1732500.0
503,0.0
558,0.0
586,0.0
596,0.0
606,0.0
617,0.0
2,1, 5,20, 0, 7,40.00,50.00,Saturday
6,9.5
7,9.169999479580478
8,96.0
9,88.66666666666666
10,0.33333333333333328
271,18.86553388802941
304,18.84033861987733
337,17.944283679895326
370,17.91987457463553
403,16.774658762845978
404,2887.5
498,2887.5
499,0.0
500,2887.5
501,2.0
12,1732500.0
503,0.0
558,0.0
586,0.0
596,0.0
606,0.0
617,0.0
2,1, 5,20, 0, 7,50.00,60.00,Saturday
6,9.4
7,9.071140865212652
8,96.0
9,96.5
10,0.5
271,18.866414038935639
304,18.841619145644655
337,17.95794997814592
370,17.933904843910026
403,16.73592231517776
404,2887.5
498,2887.5
499,0.0
500,2887.5
501,2.0
12,1732500.0
503,0.0
558,0.0
586,0.0
596,0.0
606,0.0
617,0.0
2,1, 5,20, 0, 8, 0.00,10.00,Saturday
6,9.5
7,9.170021405387365
8,96.0
9,104.33333333333334
10,0.6666666666666667
271,21.037355498996616
304,21.02998754059078
337,20.7242439070666
370,20.721116840650418
403,17.858654785315463
404,5652.821392107462
498,2887.5
499,2765.321392107461
500,5652.821392107462
501,2.0
12,3391692.8352644767
503,1659192.8352644768
558,157478.5495501908
586,16137538.525653296
596,16137538.525653296
606,16137538.525653296
617,0.0
2,1, 5,20, 0, 8,10.00,20.00,Saturday
6,9.600000000000002
7,9.268900746202519
8,96.0
9,112.16666666666666
10,0.8333333333333334
271,21.098318435817
304,21.098226603315458
337,21.088785264714628
370,21.089264479434378
403,19.13006754390842
404,5390.357142857143
498,2887.5
499,2502.857142857143
500,5390.357142857143
501,2.0
12,3234214.285714286
503,1501714.285714286
558,0.0
586,4000074.7435544559
596,4000074.7435544559
606,4000074.7435544559
617,0.0
2,1, 5,20, 0, 8,20.00,30.00,Saturday
6,9.7
7,9.367783940003769
8,96.0
9,120.0
10,1.0
271,21.09992435842314
304,21.099924711604019
337,21.09943852651416
370,21.09948959965052
403,19.297060223739999
404,5390.357142857141
498,2887.499999999999
499,2502.857142857142
500,5390.357142857141
501,1.9999999999999992
12,3234214.285714286
503,1501714.285714286
558,0.0
586,2883538.6320566197
596,2883538.6320566197
606,2883538.6320566197
617,0.0
2,1, 5,20, 0, 8,30.00,40.00,Saturday
6,9.8
7,9.466656188663294
8,96.0
9,132.5
10,1.0
271,21.099999440899148
304,21.099999534618047
337,21.09999406751047
370,21.09999526302896
403,19.45898425892085
404,5390.357142857146
498,2887.5000000000014
499,2502.857142857144
500,5390.357142857146
501,2.000000000000001
12,3234214.285714286
503,1501714.285714286
558,0.0
586,2188771.3813635755
596,2188771.3813635755
606,2188771.3813635755
617,0.0
2,1, 5,20, 0, 8,40.00,50.00,Saturday
6,9.9
7,9.565538176866227
8,96.0
9,145.0
10,1.0
271,21.10000022134023
304,21.10000029745108
337,21.099998622149003
370,21.099998957779524
403,19.69738210751835
404,5390.357142857143
498,2887.5
499,2502.857142857143
500,5390.357142857143
501,2.0
12,3234214.285714286
503,1501714.285714286
558,0.0
586,1447539.8594499543
596,1447539.8594499543
606,1447539.8594499543
617,0.0
2,1, 5,20, 0, 8,50.00,60.00,Saturday
6,10.0
7,9.664418493121313
8,96.0
9,157.5
10,1.0
271,21.1000001314096
304,21.10000016303803
337,21.099999686594797
370,21.09999977835991
403,19.89512938870253
404,5390.357142857143
498,2887.5
499,2502.857142857143
500,5390.357142857143
501,2.0
12,3234214.285714286
503,1501714.285714286
558,0.0
586,980710.8849053251
596,980710.8849053251
606,980710.8849053251
617,0.0
2,1, 5,20, 0, 9, 0.00,10.00,Saturday
6,10.100000000000002
7,9.763271642114749
8,96.0
9,170.00000000000004
10,1.0
271,21.10000002601397
304,21.100000033402716
337,21.082027275536537
370,21.099999951136949
403,19.972927580353607
404,5390.357142857143
498,2887.5
499,2502.857142857143
500,5390.357142857143
501,2.0
12,3234214.285714286
503,1501714.285714286
558,0.0
586,504022.84374860356
596,504022.84374860356
606,504022.84374860356
617,0.0
2,1, 5,20, 0, 9,10.00,20.00,Saturday
6,10.200000000000001
7,9.862122758259324
8,96.0
9,182.5
10,1.0
271,21.10000012530933
304,21.100000191972339
337,21.09868662444772
370,21.104061115647999
403,19.994830367870564
404,5390.357142857143
498,2887.5
499,2502.857142857143
500,5390.357142857143
501,2.0
12,3234214.285714286
503,1501714.285714286
558,0.0
586,274617.18297639235
596,274617.18297639235
606,274617.18297639235
617,0.0
2,1, 5,20, 0, 9,20.00,30.00,Saturday
6,10.3
7,9.960974354793928
8,96.0
9,195.0
10,1.0
271,21.083232164085048
304,21.100000179437886
337,21.15239443705455
370,21.1393166427987
403,20.00938228410197
404,5390.357142857143
498,2887.5
499,2502.857142857143
500,5390.357142857143
501,2.0
12,3234214.285714286
503,1501714.285714286
558,0.0
586,95544.13301089622
596,95544.13301089622
606,95544.13301089622
617,0.0
2,1, 5,20, 0, 9,30.00,40.00,Saturday
6,10.4
7,10.059828758626681
8,96.0
9,201.0
10,1.0
271,21.0849668857516
304,21.0856391230733
337,21.22575640944364
370,21.199123827588026
403,20.033304817730764
404,5390.357142857143
498,2887.5
499,2502.857142857143
500,5390.357142857143
501,2.0
12,3234214.285714286
503,1501714.285714286
558,0.0
586,0.0
596,0.0
606,0.0
617,0.0
2,1, 5,20, 0, 9,40.00,50.00,Saturday
6,10.5
7,10.158683430806425
8,96.0
9,207.0
10,1.0
271,21.109873968735298
304,21.0888896611811
337,21.308638334087815
370,21.27233103573054
403,20.060815267298986
404,5390.357142857143
498,2887.5
499,2502.857142857143
500,5390.357142857143
501,2.0
12,3234214.285714286
503,1501714.285714286
558,0.0
586,0.0
596,0.0
606,0.0
617,0.0
2,1, 5,20, 0, 9,50.00,60.00,Saturday
6,10.6
7,10.2575341417345
8,96.0
9,213.0
10,1.0
271,21.149855921629798
304,21.11399059334341
337,21.39771791351138
370,21.353283413662738
403,20.086497969384604
404,5390.357142857143
498,2887.5
499,2502.857142857143
500,5390.357142857143
501,2.0
12,3234214.285714286
503,1501714.285714286
558,0.0
586,0.0
596,0.0
606,0.0
617,0.0
2,1, 5,20, 0,10, 0.00,10.00,Saturday
6,10.683333333333334
7,10.339907507184579
8,96.0
9,219.0
10,1.0
271,21.200326478585166
304,21.155298028317593
337,21.49385185476014
370,21.44189880823036
403,20.109583593574098
404,5390.357142857143
498,2887.5
499,2502.857142857143
500,5390.357142857143
501,2.0
12,3234214.285714286
503,1501714.285714286
558,0.0
586,0.0
596,0.0
606,0.0
617,0.0
2,1, 5,20, 0,10,10.00,20.00,Saturday
6,10.766666666666668
7,10.422283129434377
8,96.0
9,225.0
10,1.0
271,21.25605647174231
304,21.20452546331111
337,21.594215156210493
370,21.53509747953552
403,20.131137027398979
404,5390.357142857143
498,2887.5
499,2502.857142857143
500,5390.357142857143
501,2.0
12,3234214.285714286
503,1501714.285714286
558,0.0
586,0.0
596,0.0
606,0.0
617,0.0
2,1, 5,20, 0,10,20.00,30.00,Saturday
6,10.85
7,10.504660345993266
8,96.0
9,231.0
10,1.0
271,21.314916241007926
304,21.257996365119835
337,21.67338805757471
370,21.631412100136545
403,20.151942361742319
404,5423.29340884697
498,2887.5
499,2535.7934088469706
500,5423.29340884697
501,2.0
12,3253976.0453081827
503,1521476.0453081825
558,19761.759593896535
586,0.0
596,0.0
606,0.0
617,0.0
2,1, 5,20, 0,10,30.00,40.00,Saturday
6,10.933333333333334
7,10.587030728481924
8,96.0
9,234.16666666666667
10,1.0
271,21.37492013226495
304,21.313268870377177
337,21.776607737982816
370,21.728891725608024
403,20.17220597540364
404,5390.357142857143
498,2887.5
499,2502.857142857143
500,5390.357142857143
501,2.0
12,3234214.285714286
503,1501714.285714286
558,0.0
586,0.0
596,0.0
606,0.0
617,0.0
2,1, 5,20, 0,10,40.00,50.00,Saturday
6,11.016666666666666
7,10.669412041763346
8,96.0
9,237.33333333333335
10,1.0
271,21.435516470604079
304,21.369672696185739
337,21.862499632515357
370,21.826809459294073
403,20.19190944834846
404,5424.0685303086975
498,2887.5
499,2536.5685303086975
500,5424.0685303086975
501,2.0
12,3254441.1181852186
503,1521941.1181852185
558,20226.832470932513
586,0.0
596,0.0
606,0.0
617,0.0
2,1, 5,20, 0,10,50.00,60.00,Saturday
6,11.1
7,10.75178754501868
8,96.0
9,240.5
10,1.0
271,21.496628180432663
304,21.426957765790488
337,21.970426313654199
370,21.92508590720249
403,20.21198959515021
404,5390.357142857143
498,2887.5
499,2502.857142857143
500,5390.357142857143
501,2.0
12,3234214.285714286
503,1501714.285714286
558,0.0
586,0.0
596,0.0
606,0.0
617,0.0
2,1, 5,20, 0,11, 0.00,10.00,Saturday
6,11.2
7,10.850639690047233
8,96.0
9,243.66666666666669
10,1.0
271,21.56038982497805
304,21.48720860020559
337,22.060009588752278
370,22.02586618161095
403,20.232304716940989
404,5425.424955809549
498,2887.5
499,2537.9249558095485
500,5425.424955809549
501,2.0
12,3255254.973485729
503,1522754.973485729
558,21040.687771443056
586,0.0
596,0.0
606,0.0
617,0.0
2,1, 5,20, 0,11,10.00,20.00,Saturday
6,11.3
7,10.949490431712855
8,96.0
9,246.83333333333335
10,1.0
271,21.624662885982177
304,21.54815246851732
337,22.171943789145386
370,22.103937782246044
403,20.252545643202905
404,5421.445570766085
498,2887.5
499,2533.945570766086
500,5421.445570766085
501,2.0
12,3252867.342459651
503,1520367.3424596515
558,18653.056745365408
586,0.0
596,0.0
606,0.0
617,0.0
2,1, 5,20, 0,11,20.00,30.00,Saturday
6,11.399999999999999
7,11.048338179849317
8,96.0
9,250.0
10,1.0
271,21.688561150830574
304,21.608825134673823
337,22.261683120770955
370,22.203857384737675
403,20.272571807164519
404,5426.553115479458
498,2887.5
499,2539.053115479458
500,5426.553115479458
501,2.0
12,3255931.869287675
503,1523431.8692876748
558,21717.5835733888
586,0.0
596,0.0
606,0.0
617,0.0
2,1, 5,20, 0,11,30.00,40.00,Saturday
6,11.5
7,11.147191901111754
8,96.0
9,254.66666666666667
10,1.0
271,21.752841980214023
304,21.66986703221675
337,22.374394855404849
370,22.311053449474409
403,20.292382051153415
404,5390.357142857143
498,2887.5
499,2502.857142857143
500,5390.357142857143
501,2.0
12,3234214.285714286
503,1501714.285714286
558,0.0
586,0.0
596,0.0
606,0.0
617,0.0
2,1, 5,20, 0,11,40.00,50.00,Saturday
6,11.6
7,11.2460355444445
8,96.0
9,259.3333333333333
10,1.0
271,21.817731712558595
304,21.73159395322036
337,22.465836518080129
370,22.392201122377437
403,20.31201745446767
404,5459.497808800062
498,2887.5
499,2571.9978088000616
500,5459.497808800062
501,2.0
12,3275698.6852800368
503,1543198.6852800369
558,41484.39956575098
586,0.0
596,0.0
606,0.0
617,0.0
2,1, 5,20, 0,11,50.00,60.00,Saturday
6,11.7
7,11.34488636083232
8,96.0
9,264.0
10,1.0
271,21.88317708660717
304,21.793840601963436
337,22.580436326994449
370,22.495400740910577
403,20.33151167436392
404,5390.357142857143
498,2887.5
499,2502.857142857143
500,5390.357142857143
501,2.0
12,3234214.285714286
503,1501714.285714286
558,0.0
586,0.0
596,0.0
606,0.0
617,0.0
2,1, 5,20, 0,12, 0.00,10.00,Saturday
6,11.883333333333333
7,11.481153003949168
8,95.5
9,268.66666666666665
10,1.0
271,21.950213242952839
304,21.85771455498965
337,22.67431862656324
370,22.58304260242816
403,20.350884520807985
404,5458.583543433317
498,2887.5
499,2571.083543433317
500,5458.583543433317
501,2.0
12,3275150.1260599906
503,1542650.1260599902
558,40935.8403457043
586,0.0
596,0.0
606,0.0
617,0.0
2,1, 5,20, 0,12,10.00,20.00,Saturday
6,12.066666666666667
7,11.616814644987914
8,95.0
9,273.33333333333339
10,1.0
271,22.018902012425295
304,21.92324764877416
337,22.793131660783865
370,22.693218202181418
403,20.370149345544804
404,5390.357142857143
498,2887.5
499,2502.857142857143
500,5390.357142857143
501,2.0
12,3234214.285714286
503,1501714.285714286
558,0.0
586,0.0
596,0.0
606,0.0
617,0.0
2,1, 5,20, 0,12,20.00,30.00,Saturday
6,12.25
7,11.751868055007366
8,94.5
9,278.0
10,1.0
271,22.089003917958434
304,21.990174458736907
337,22.89027168540056
370,22.784378477676417
403,20.389318613264803
404,5461.730150113672
498,2887.5
499,2574.2301501136712
500,5461.730150113672
501,2.0
12,3277038.090068203
503,1544538.0900682028
558,42823.804353916865
586,0.0
596,0.0
606,0.0
617,0.0
2,1, 5,20, 0,12,30.00,40.00,Saturday
6,12.433333333333334
7,11.886299303801371
8,94.0
9,278.1666666666667
10,0.8333333333333334
271,22.158343465193256
304,22.05648351997478
337,23.010494313314469
370,22.896392462862975
403,20.408405415412603
404,5390.357142857143
498,2887.5
499,2502.857142857143
500,5390.357142857143
501,2.0
12,3234214.285714286
503,1501714.285714286
558,0.0
586,0.0
596,0.0
606,0.0
617,0.0
2,1, 5,20, 0,12,40.00,50.00,Saturday
6,12.616666666666668
7,12.020125940706852
8,93.5
9,278.3333333333333
10,0.6666666666666667
271,22.226496742901508
304,22.121782977198597
337,23.105545153359047
370,22.98621841883545
403,20.427422889597329
404,5462.398494756262
498,2887.5
499,2574.898494756262
500,5462.398494756262
501,2.0
12,3277439.0968537575
503,1544939.0968537573
558,43224.81113947142
586,0.0
596,0.0
606,0.0
617,0.0
2,1, 5,20, 0,12,50.00,60.00,Saturday
6,12.8
7,12.153327253113986
8,93.0
9,278.5
10,0.5
271,22.29384339799141
304,22.186430950890509
337,23.223291379672689
370,23.096613165260455
403,20.446382767014585
404,5390.357142857143
498,2887.5
499,2502.857142857143
500,5390.357142857143
501,2.0
12,3234214.285714286
503,1501714.285714286
558,0.0
586,0.0
596,0.0
606,0.0
617,0.0
2,1, 5,20, 0,13, 0.00,10.00,Saturday
6,12.8
7,12.153327253113986
8,93.0
9,278.6666666666667
10,0.33333333333333328
271,22.35541762336188
304,22.245388563946624
337,23.31128403727043
370,23.179905958132588
403,20.465293990615739
404,5460.80610448231
498,2887.5
499,2573.3061044823094
500,5460.80610448231
501,2.0
12,3276483.662689386
503,1543983.6626893858
558,42269.376975099745
586,0.0
596,0.0
606,0.0
617,0.0
2,1, 5,20, 0,13,10.00,20.00,Saturday
6,12.8
7,12.153327253113986
8,93.0
9,278.8333333333333
10,0.16666666666666664
271,22.414881987952897
304,22.302356772091117
337,23.419130307982486
370,23.28104901436825
403,20.484162134070254
404,5390.357142857143
498,2887.5
499,2502.857142857143
500,5390.357142857143
501,2.0
12,3234214.285714286
503,1501714.285714286
558,0.0
586,0.0
596,0.0
606,0.0
617,0.0
2,1, 5,20, 0,13,20.00,30.00,Saturday
6,12.8
7,12.153327253113986
8,93.0
9,279.0
10,0.0
271,22.473900167896855
304,22.359037674977008
337,23.504179946322496
370,23.361893258598387
403,20.502989237832265
404,5454.591967789571
498,2887.5
499,2567.0919677895704
500,5454.591967789571
501,2.0
12,3272755.180673742
503,1540255.1806737423
558,38540.894959456265
586,0.0
596,0.0
606,0.0
617,0.0
2,1, 5,20, 0,13,30.00,40.00,Saturday
6,12.8
7,12.153327253113986
8,93.0
9,275.8333333333333
10,0.16666666666666664
271,22.53103843540251
304,22.41403851984823
337,23.606857736110006
370,23.4586910416159
403,20.521774315574736
404,5390.357142857143
498,2887.5
499,2502.857142857143
500,5390.357142857143
501,2.0
12,3234214.285714286
503,1501714.285714286
558,0.0
586,0.0
596,0.0
606,0.0
617,0.0
2,1, 5,20, 0,13,40.00,50.00,Saturday
6,12.8
7,12.153327253113986
8,93.0
9,272.6666666666667
10,0.33333333333333328
271,22.585641306393574
304,22.46673882854736
337,23.684803064628967
370,23.55552028404807
403,20.54051454006853
404,5422.471834849192
498,2887.5
499,2534.9718348491924
500,5422.471834849192
501,2.0
12,3253483.1009095159
503,1520983.1009095156
558,19268.81519522971
586,0.0
596,0.0
606,0.0
617,0.0
2,1, 5,20, 0,13,50.00,60.00,Saturday
6,12.8
7,12.153327253113986
8,93.0
9,269.5
10,0.5
271,22.63780062275128
304,22.517191756102169
337,23.7784332754275
370,23.644958079993978
403,20.559205912210527
404,5390.357142857143
498,2887.5
499,2502.857142857143
500,5390.357142857143
501,2.0
12,3234214.285714286
503,1501714.285714286
558,0.0
586,0.0
596,0.0
606,0.0
617,0.0
2,1, 5,20, 0,14, 0.00,10.00,Saturday
6,12.883333333333335
7,12.188091327645463
8,92.5
9,266.3333333333333
10,0.6666666666666667
271,22.239140248568839
304,22.131666006039749
337,23.365061811279206
370,23.235180063275466
403,19.51627667892999
404,2887.5
498,2887.5
499,0.0
500,2887.5
501,2.0
12,1732500.0
503,0.0
558,0.0
586,0.0
596,0.0
606,0.0
617,0.0